18
Lattice="7.0915 0.0 0.0 1.47275652 8.27632409 0.0 0.92706851 2.32530585 9.18375908" Properties=species:S:1:pos:R:3:REF_forces:R:3 REF_energy=-208.10114229 config_type=initial rss_group=traj REF_stress="-0.23796296157388044 -0.009223477560558347 -0.03240839033968258 -0.009223477560558347 -0.34444938146984105 0.05155308053288004 -0.03240839033968258 0.05155308053288004 -0.25343433201968246" pbc="T T T"
As       5.55477383       1.20257492       2.87046104      -6.00269896       3.37632059     -10.72562596
As       2.18752514       6.84797904       5.58594524       5.39164686      13.95058205       3.99825393
As       6.25934591       7.77976973       1.31755718       0.03002601       0.58660596       0.53716561
As       6.80656809       4.14121344       5.64323444     -17.97718638      12.10468410      -3.98140858
As       5.05959688       2.13384286       6.86265581     -24.70831828       2.83608077       1.67642025
As       6.59362362       3.08417658       7.45807565       3.23603633      10.32997276      22.57089748
As       5.83212686       2.63894116       0.64647970       5.90037953      -9.62357631       1.48137095
As       7.88068092       8.86745887       4.45521143       4.64486627      -6.37049171      -7.93971037
As       3.15009392       3.73971048       1.50367249      -1.66709431       2.66910015      -0.58524186
As       8.04447419       6.43241915       4.20263601     -11.64887865       7.79233222     -17.89364183
As       1.40830488       4.87708034       5.19439934      13.97570249     -11.74303472      -0.06110983
As       3.88506838       8.79658602       3.70811171       0.38362660      -8.65020384       4.70252487
As       3.36659051       5.88916275       6.72652954       8.03179533      -5.96182616       8.28004889
As       7.15668715       2.27700740       5.75385925      17.23993666      -5.29202138     -13.67598113
As       5.02597296       4.31263913       0.24727455      -3.21290961      10.05616269      -3.14927299
As       1.58820190       3.65890177       7.16277555       8.26816322       0.79996222       3.26782530
As       7.70366711       9.00296168       6.34495537      -0.74445777     -23.32353272      14.73060167
As       2.47585370       2.15967915       2.70535267      -1.14063536       6.46288333      -3.23311639
12
Lattice="3.74137 0.0 0.0 0.06673143 7.42985033 0.0 0.63183718 3.1412754 11.41597413" Properties=species:S:1:pos:R:3:REF_forces:R:3 REF_energy=-149.29272143 config_type=initial rss_group=traj REF_stress="-0.29643868156236675 -0.02691972830589939 -0.040218814625958624 -0.02691972830589939 -0.13323621396585542 0.004231609063559243 -0.040218814625958624 0.004231609063559243 -0.26093036588641255" pbc="T T T"
As       2.87130263       2.45492511       4.14019937       2.04376439      -1.30352395       4.38587956
As       2.14510368       2.97616943       9.73418424      -5.47572657      -0.04303672     -12.54910250
As       3.50360785       6.66014196       4.20718032      -3.66750347      -2.97151787     -11.09712091
As       1.30890739       4.23118290       3.57812019       2.43243566      15.68423397       1.03431024
As       0.45669167       7.25789480       5.87393309       7.49670117       5.03478968       0.66048418
As       1.38832932       6.89450336       0.37582414      -6.65955077      -5.58630934      12.75219589
As       3.65296193       3.21051576      10.98883861      12.28809909       6.00526601       0.76654405
As       3.85933323       2.94903773       6.17183978      -8.00457496       6.35641317      -2.92884828
As       1.05385798       2.36877656       3.30055904      -4.77762647     -14.92490183      -9.78909294
As       3.44100231       6.73689192       7.53714577      -3.94840783      -3.02692804      10.78124978
As       1.70687823       2.34306461       7.01927038       8.27802732      -4.90059916       5.80232190
As       3.25615639       5.04096773       0.86676811      -0.00563756      -0.32388591       0.18117902
24
Lattice="8.2678 0.0 0.0 3.78939159 8.36773957 0.0 3.69055699 0.54409181 10.32868374" Properties=species:S:1:pos:R:3:REF_forces:R:3 REF_energy=-288.0884217 config_type=initial rss_group=traj REF_stress="-0.26344854726393474 -0.008189605596322033 0.014838502048625076 -0.008189605596322033 -0.213221026979799 -0.0561178696110955 0.014838502048625076 -0.0561178696110955 -0.26309836482916676" pbc="T T T"
As       8.08382752       3.39886825       4.58992762      -0.76918959     -12.87612367      -1.17719190
As       4.96703306       0.91604760       7.44023944      -1.83583289      -0.90918332       0.84817303
As       8.77167331       4.56418983       6.85757464      11.72335972       5.88572213       3.50909502
As      12.66572875       5.52340910       6.21413379      -9.08720865     -10.09455576      21.64053727
As      13.16626707       7.10032784       5.25548424      -1.40039611      21.50834339      -5.81986676
As      11.14744372       7.61891200       8.91557727     -14.76999099       3.00289050      -6.98141189
As       6.63686983       1.08626185       9.83771596      -1.50121678       2.77774280       1.11603431
As       9.94600091       7.82956766       2.40555974       7.07944411     -11.04001902      -9.44444592
As       3.51435407       3.90854970       3.26280124      -7.68988202       1.25588403       0.24047827
As       9.30087009       3.34196715       1.75712394       1.41108991      -2.28172882     -13.45061416
As      12.66535272       7.11770486       7.88857042      10.91774543      -0.81491915      -4.08569812
As       8.55586187       1.54715407       2.50583886      10.67303604      -7.59211987      -2.66919602
As      10.15254306       3.72563606       8.50493669      13.12519315       5.20551045       4.04961437
As      11.56557555       4.48250919      10.21878035       0.21491436       0.81609616      -0.56232550
As       8.17595102       6.83609077       0.32931975       4.61787287      -2.38162655      13.42654283
As       9.31245773       4.25720739       3.42213978       7.33990696      15.27931785       4.09643328
As       7.11034091       4.20589750       6.00808998     -13.30469609      -7.79144231      11.35700472
As       8.49660147       2.81481711       8.30690690     -11.04148179      -8.41959346       0.12045736
As       3.91894527       2.50697414       2.04546980       2.76125437      -8.70561282      -8.03265262
As       6.86148289       8.01407869       8.16378646       2.24162189       1.03074054      -0.62851342
As       4.57981219       4.99977172       4.39657982      -5.74402815      -4.64716149     -14.05724650
As       6.71363354       1.53487813       2.97077733      -6.54990876       6.48025164       1.18126795
As       6.27531330       5.59469841       5.01614282      14.50328847      10.48158451      -5.59542086
As       5.07381711       0.46452595       3.60228648     -12.91489546       3.83000225      10.91894527
6
Lattice="4.21758 0.0 0.0 1.55071065 5.9596657 0.0 1.83354753 -0.4438599 6.18643487" Properties=species:S:1:pos:R:3:REF_forces:R:3 REF_energy=-70.81675563 config_type=initial rss_group=traj REF_stress="-0.2372392472561537 -0.038783111283307525 0.03563290073568399 -0.038783111283307525 -0.2594897483664493 0.08290908143677239 0.03563290073568399 0.08290908143677239 -0.4755004105911868" pbc="T T T"
As       3.56893914       0.89957483       5.08848126      -1.85648448       4.26893782       1.91703784
As       2.83938296       5.79412654       1.00016402      -0.74997056       6.63375296      -9.84632288
As       6.80512175       4.71183370       6.02830588       4.04203561      -5.85147673      13.74791802
As       1.52553491       0.68591411       4.17836018       8.54290421      15.39234250      -2.50856483
As       6.21892429       5.06906405       4.25434816     -17.68144809      -9.65376425      -0.34671844
As       2.92180499       4.79439643       2.61504623       7.70296331     -10.78979230      -2.96334970
6
Lattice="3.57963 0.0 0.0 1.34688081 4.04962115 0.0 0.96152868 1.03823121 10.60830437" Properties=species:S:1:pos:R:3:REF_forces:R:3 REF_energy=-77.89370188 config_type=initial rss_group=traj REF_stress="-0.1865473320355668 -0.04029724459327225 0.1362312278162036 -0.04029724459327225 -0.03613393112745139 0.02592250402409567 0.1362312278162036 0.02592250402409567 -0.273908022506828" pbc="T T T"
As       2.49209613       3.70216443       8.70484040      -7.01884456      -6.12885271       4.48415359
As       2.41214215       1.79172345       1.64386709       2.03094848       0.65076068      -4.44069620
As       3.84404210       4.41335434       7.57503795       7.83972043       5.93811199      -9.01859476
As       4.48655937       1.86216515       5.09517389      -2.85061891       2.58656756       9.72998537
As       4.37036717       3.86441169      10.04406669      -0.46846924       0.59168987       3.77875852
As       1.48048338       1.29016930       3.37642491       0.46726379      -3.63827739      -4.53360652
16
Lattice="4.85106 0.0 0.0 0.66491852 6.68310426 0.0 0.28219068 1.06030916 13.53439775" Properties=species:S:1:pos:R:3:REF_forces:R:3 REF_energy=-198.06678822 config_type=initial rss_group=traj REF_stress="-0.20628988865470285 0.024739266367654642 -0.012130803862495109 0.024739266367654642 -0.3338829401860162 -0.0023200852463718595 -0.012130803862495109 -0.0023200852463718595 -0.14131353040025588" pbc="T T T"
As       5.40790057       5.48322688      12.48580269      -6.00665419       8.65154139     -13.45388689
As       3.95071696       3.90358033       5.41549962       7.03183883     -11.86825345       6.49061301
As       4.58497984       1.13561273      11.68728405      -6.88162515      -2.33162666      -9.46606606
As       1.30304224       3.40783530      12.18965518       2.73012234       7.87203346     -10.62611243
As       1.00653780       1.75707016      13.08253429      -4.57514473      -0.00153522      16.92184661
As       2.97708813       3.79480214      10.64484443       1.01676023       0.33604186      -0.98935176
As       3.57954235       5.51494942       4.47966234       0.39372745      10.08365442      -9.13690042
As       3.38657313       2.43578207       0.11913654      -3.08351174     -12.49699744      -4.11540572
As       3.69960798       6.12901438       8.39131172      -0.09838093      -0.10401709      -0.73625490
As       3.75429881       4.16680097       0.81136008      -0.57602995      10.60756048       7.57728027
As       1.17066813       3.64173910       0.43445958       8.61284564      -3.17954816      15.61574883
As       2.92484210       7.10679305      12.57153904       9.54381657      -9.42178419      -4.03324205
As       1.86796703       3.58639723       5.35025300      -1.30327634     -13.39573062      -4.14679722
As       4.29794901       6.55355004       0.95782392      -0.57184024       0.39222123       1.83165260
As       1.32123338       5.30776519       5.94026341      -7.55844229      10.60991031       5.24655595
As       2.67624133       7.01982192       5.81026146       1.32579449       4.24652969       3.02032016
10
Lattice="3.66768 0.0 0.0 1.79936838 8.02229047 0.0 0.70883795 0.46698159 9.98117091" Properties=species:S:1:pos:R:3:REF_forces:R:3 REF_energy=-113.64564397 config_type=initial rss_group=traj REF_stress="-0.20066934811435744 0.01113045805218131 0.06558631570065662 0.01113045805218131 -0.2047970976172167 -0.03218182564307707 0.06558631570065662 -0.03218182564307707 -0.24294139492289366" pbc="T T T"
As       1.61406340       6.58567818       1.58912518       0.71683716       0.39627401       0.92918677
As       2.88107588       6.06983312       4.91059735      -0.26341712       0.13021730      -0.48584421
As       3.39420496       1.55918249       0.08403148      -1.81343100       2.64724468      14.11295861
As       4.48221252       1.60206662       8.24616493       2.13423491       6.29272016      13.97260198
As       1.10722944       2.17962119       6.35687900      17.37712683       7.08234387     -22.59476268
As       3.52982250       0.80494493       6.77430154      -5.77117890     -14.12092276     -14.94744736
As       3.76870935       8.18086879       7.64442210      -1.67866515     -18.08068445       4.23592802
As       2.07444512       3.55198338       0.65686285      -1.15250642      -0.15174372       0.87340780
As       0.82172853       1.56267520       2.93020528       0.18756411      -0.31622559      -1.02825099
As       3.68399992       3.42741329       7.28582258      -9.73656444      16.12077650       4.93222205
6
Lattice="3.9192 0.0 0.0 -0.50186003 5.49531137 0.0 -1.37982095 -1.69079808 7.14000326" Properties=species:S:1:pos:R:3:REF_forces:R:3 REF_energy=-68.41071559 config_type=initial rss_group=traj REF_stress="-0.2583769833024392 -0.16092777697084218 0.08787629214667918 -0.16092777697084218 -0.3699258058478343 0.014242487366097012 0.08787629214667918 0.014242487366097012 -0.4084100215388688" pbc="T T T"
As      -1.05897943      -0.84921415       7.03557857     -19.00582728     -12.14823154      -2.77496954
As      -0.17968169       4.45761080       0.69909271      -0.29482411      -6.11146355       1.80748202
As       0.19635084       0.34869285       6.26135446      -2.10099203      12.64909957      -3.98762604
As       0.72201188      -0.97815623       5.00584915       4.68926151     -10.24482918     -11.00149332
As       1.50671412       1.81417677       1.01707990       8.12300873       6.59485729      22.59523156
As       1.39233206       1.50586481       5.34429530       8.58937319       9.26056741      -6.63862468
14
Lattice="7.01623 0.0 0.0 0.0 7.67726 0.0 0.0 -3.83863 6.64870219" Properties=species:S:1:pos:R:3:REF_forces:R:3 REF_energy=-176.72417678 config_type=initial rss_group=traj REF_stress="0.04801226464757062 1.0223591948196777e-08 -1.0042588183546162e-08 1.0223591948196777e-08 -0.202900509026077 1.8399968903103844e-08 -1.0042588183546162e-08 1.8399968903103844e-08 -0.2029005447025432" pbc="T T T"
As       3.42990017      -0.51329585       6.13835645      -0.40732514       0.70656479       0.08907360
As       3.42990017      -1.22069470       3.13499672      -0.40732497      -0.43042297       0.56735450
As       3.42990017       1.73399055       4.02405121      -0.40732620      -0.27613470      -0.65644963
As       6.93801517      -1.73399055       4.02405121      -0.40733865       0.27608984      -0.65646427
As       6.93801517       0.51329585       6.13835645      -0.40733675      -0.70654869       0.08913065
As       6.93801517       1.22069470       3.13499672      -0.40733560       0.43047494       0.56732786
As       3.73162823       2.74303318       6.59393351       0.23814811     -25.32650973      -1.57250721
As       3.73162823      -3.24340052       5.72727185       0.23815066      14.02508001     -21.14715102
As       3.73162823       0.50036734       0.97619902       0.23815135      11.30141868      22.71966825
As       0.22351323      -0.50036734       0.97619902       0.23823140     -11.30143450      22.71964564
As       0.22351323      -2.74303318       6.59393351       0.23822831      25.32650941      -1.57247963
As       0.22351323       3.24340052       5.72727185       0.23823202     -14.02507883     -21.14716451
As       6.20934250       3.83863038       2.21623384       0.50732255      -0.00000830       0.00000228
As       2.70122750       3.83863038       2.21623384       0.50752292       0.00000005       0.00001349
8
Lattice="3.94065 0.0 0.0 1.71280737 6.10067894 0.0 0.95353936 1.45472188 9.43343225" Properties=species:S:1:pos:R:3:REF_forces:R:3 REF_energy=-105.07812728 config_type=initial rss_group=traj REF_stress="-0.1032182880795161 -0.06442142757548344 -0.03893363905088884 -0.06442142757548344 -0.0864009372205664 -0.08445249106957885 -0.03893363905088884 -0.08445249106957885 -0.14587418238776986" pbc="T T T"
As       3.83268431       6.52529460       8.71995724     -10.06641220      -5.70424006       4.88921652
As       3.61244860       1.45369343       9.28849322      10.00618516       7.87602824       4.37038281
As       2.11440342       1.68487582       1.84306720       1.83239551      -0.86566861      -2.07538762
As       4.84300370       3.73027627       4.10382886       3.20123401       9.67857984       6.50256258
As       3.07011130       6.07790971       4.82205643      -1.61068371      -0.73188793      -3.52578874
As       5.50732962       4.42536615       7.43210413      -0.43608770       0.41810727      -0.52653917
As       3.94546615       6.22872053       6.73623945       2.26062741      -2.38495170      -5.30766858
As       4.29087279       2.22291773       3.08703222      -5.18725848      -8.28596705      -4.32677780
6
Lattice="2.7586081 0.03006079 -0.08591346 -0.05129897 5.47280516 -0.43898286 0.42961325 -2.12971417 10.00835383" Properties=species:S:1:pos:R:3:REF_forces:R:3 REF_energy=-85.74312855 config_type=traj_early rss_group=traj REF_stress="0.02985020177495777 0.002105568834424475 0.0006853915952485231 0.002105568834424475 0.02996908594635761 0.00029418309684524894 0.0006853915952485231 0.00029418309684524894 0.029232631422754063" pbc="T T T"
As       2.94435482       0.43702349       6.07854336       0.01811306       0.03021476      -0.41627740
As       0.19236467       2.93656988       3.40486997      -0.01808350      -0.02915902       0.41695597
As       2.83181721       0.24132212       3.54580358       0.12401518       0.06747214       0.40021177
As       0.30482237       3.13178279       5.93778220      -0.12402074      -0.06843169      -0.40077073
As       1.12676940       1.40416021      -0.11882843       0.34330483       0.29577644       0.01522710
As       2.01063870       1.96859678       9.60220185      -0.34332884      -0.29587263      -0.01534671
6
Lattice="3.39185474 0.96519184 -1.29831586 -4.74091986 3.88556148 2.55300051 2.45942124 -2.58622517 5.82289086" Properties=species:S:1:pos:R:3:REF_forces:R:3 REF_energy=-86.65741718 config_type=traj_early rss_group=traj REF_stress="0.012948561800659125 0.006845944153474943 0.004029687661261871 0.006845944153474943 -0.02324506593499283 -0.005763184408089449 0.004029687661261871 -0.005763184408089449 -0.0024030116904824083" pbc="T T T"
As       4.11889040      -0.35387971       1.78723223      -0.13579312      -0.49787684      -0.86131913
As       2.84992246      -1.88279466       5.26482401      -0.11140284      -0.36259815       0.43391361
As       2.67407244       1.43554519       0.42636494       0.49388098      -0.50723800      -0.08080796
As       2.51598621       0.77055974       3.92261089      -0.45711847       0.49364837       0.15084998
As       1.41287715       0.52860591       6.21802473       0.11235122       0.36159121      -0.48924334
As       1.10053521       2.55978666       2.57803747       0.09808224       0.51247340       0.84660684
8
Lattice="2.75537629 0.00427902 0.007038 -0.00966224 9.41396018 0.22242127 0.03239825 -4.56826016 6.70637975" Properties=species:S:1:pos:R:3:REF_forces:R:3 REF_energy=-115.03577355 config_type=traj_early rss_group=traj REF_stress="0.03939764056005379 0.0002818431963977389 0.0012866896778025935 0.0002818431963977389 0.01234810410610131 -0.004019820983771529 0.0012866896778025935 -0.004019820983771529 0.022867129862191034" pbc="T T T"
As       2.68796380       1.24142270       6.49262889       0.00442010      -0.07680935       0.10407728
As       2.65443274       1.14685370       2.65076550       0.04029079      -0.16937094      -0.27455768
As       2.74008989      -2.40830735       4.59133072      -0.07868908      -0.17413842       0.24329861
As       2.70747557       3.28003919       4.50144636      -0.04518337      -0.56243761       0.49906448
As       2.67931030       7.91071859       2.19077861      -0.00066804       0.65938140      -0.00705261
As       2.64346009       3.08392401       0.65182647       0.02690891       0.23414698       0.02733255
As       2.72730446       4.91094256       6.53347505      -0.03596584       0.09990001      -0.41409936
As       2.62057321       5.00360826       2.54126526       0.08888653      -0.01067208      -0.17806326
12
Lattice="2.83799492 0.11796508 -0.22658664 0.25998937 10.67013936 -0.17578135 -0.61890425 -5.48913965 9.44309501" Properties=species:S:1:pos:R:3:REF_forces:R:3 REF_energy=-172.15996836 config_type=traj_early rss_group=traj REF_stress="0.02791040132496234 0.0017287632736876348 -0.004164690985609469 0.0017287632736876348 -0.033805032726639074 0.0068750590771321785 -0.004164690985609469 0.0068750590771321785 -0.021050508103881576" pbc="T T T"
As       1.85793703       3.80649079       0.49284879       0.15201984       1.13299998       0.44598055
As       1.57997327       7.54429603       2.99120010       0.13853708      -1.72918221      -0.06387008
As       2.06973289       4.32283180       4.92190865      -0.13153840       1.36407393      -1.15825137
As       1.51464679      -1.63699699       5.02290935      -0.08571692       0.81865710      -0.19457165
As       2.20160609       1.98075416       5.06754083       0.08628737      -0.85150973       0.76852926
As       0.61413638       0.06953296       8.03215756       0.08527416      -0.28244953      -0.15230639
As       1.95785484      -2.85694626       7.05830156      -0.11275146      -0.02103464       0.28779926
As       2.17140562       0.54314507       3.06615527      -0.12115442       0.18737675       0.20404296
As       0.65341729       2.49257576       8.16960334      -0.06360754      -0.39222786       0.21158656
As       2.14726287       5.41718881       7.14111248       0.10984122      -0.70028983       0.22250536
As       1.77206739       1.45491053       0.87472221      -0.12704979      -0.51272201      -0.64214679
As       1.29984165       8.86239954       1.00946241       0.06985888       0.98630805       0.07070233
6
Lattice="3.74507726 -0.63844583 0.66291136 -0.96371483 6.37373827 0.36667346 1.364265 3.03921167 6.48222094" Properties=species:S:1:pos:R:3:REF_forces:R:3 REF_energy=-86.92318463 config_type=traj_early rss_group=traj REF_stress="-0.0015348852480272068 -0.001971887755060669 -0.002382788645420234 -0.001971887755060669 -0.0069306990539254295 0.0029016564775977537 -0.002382788645420234 0.0029016564775977537 0.016111630924380047" pbc="T T T"
As       4.06124317       6.04695121       5.75884042      -0.05861500      -0.36199462      -0.17117267
As       2.13412863       4.74648967       4.13746107      -0.14524572      -0.06256169       0.75234920
As       0.20350101       3.45997285       2.60717922      -0.05068130       0.14740561       0.17828166
As       2.67570600       5.88913441       2.10947248       0.17726244       0.03472052      -0.75693093
As       1.83756749       1.42836099       2.60826923       0.02624204      -0.12217567      -0.15198706
As       2.12369849       7.62263554       6.97515991       0.05103755       0.36460585       0.14945981
6
Lattice="3.23128716 0.96318148 -1.18542347 -5.24474767 4.41958761 2.77125401 2.48991169 -2.80104334 5.73946341" Properties=species:S:1:pos:R:3:REF_forces:R:3 REF_energy=-86.60155896 config_type=traj_early rss_group=traj REF_stress="-0.016973056707332027 -0.0020714594114741437 0.004970946583918597 -0.0020714594114741437 -0.05663394600321458 -0.006997148282192685 0.004970946583918597 -0.006997148282192685 -0.0006596244922562285" pbc="T T T"
As      -1.44405698       3.84140833       4.37324091       0.41271206       0.46640652      -0.13095745
As       2.98442244      -1.94712731       5.19256387       0.01936931      -0.07910446       0.50839511
As      -0.54605374       0.44372532       1.73263846      -0.24638743       0.56480177      -0.49607063
As       2.20858726       0.42495018       4.40591914       0.89920359       0.82647734       0.09213603
As       1.17887413       0.92921670       6.46532440      -1.03522077      -0.66821399      -0.33405468
As       0.16055130       3.13156468       2.64649028      -0.04967677      -1.11036719       0.36055162
6
Lattice="5.79669169 -0.53828624 -0.07390321 -1.45113428 5.19649501 -0.43957346 -0.60355759 -2.51967915 4.87165579" Properties=species:S:1:pos:R:3:REF_forces:R:3 REF_energy=-85.50715176 config_type=traj_early rss_group=traj REF_stress="0.02058425507640512 0.004474578212494661 0.002139553889063964 0.004474578212494661 0.031548558887821716 -0.0009769917059571165 0.002139553889063964 -0.0009769917059571165 0.017896425205407667" pbc="T T T"
As       3.98335485      -0.04842227       3.29570410       0.34013167       0.21524672       0.16573609
As       0.87467267       0.40974537       3.53143105      -0.04554449       0.05990247       0.29371243
As       4.23926659       1.78695879       1.23868950      -0.13750622       0.00663438      -0.23187462
As       0.69917694       2.95387512       2.61434219      -0.25584533      -0.15712156       0.01822891
As       3.64551019       4.29553062       0.01808653       0.36044548      -0.46186836      -0.03165219
As       1.66907852       1.14603759       0.69627799      -0.26168111       0.33720635      -0.21415064
14
Lattice="3.96176015 0.00171405 -0.03726236 0.00325459 7.28992516 2.166e-05 -1.17712674 -0.00155476 13.04253529" Properties=species:S:1:pos:R:3:REF_forces:R:3 REF_energy=-199.72286435 config_type=traj_early rss_group=traj REF_stress="0.02056833007808174 5.074432428018114e-05 0.005491509697355834 5.074432428018114e-05 -1.7915659002480932e-05 9.084878540252384e-06 0.005491509697355834 9.084878540252384e-06 0.01193282411052393" pbc="T T T"
As       0.45992740       4.57434685       6.63729504      -0.15653894      -0.04380192       0.31803175
As       2.31419683       0.92768179       6.37120555       0.15552809      -0.02967587      -0.33808166
As      -0.03698379       0.06283842       9.59434289      -0.19627672       0.20719723       0.18950548
As       2.82173793       3.71211722       3.41183429       0.20865850       0.22127397      -0.18958056
As       3.50221484       1.75803854       0.46051565       0.28737109       0.14149712       0.02802818
As      -0.71217649       5.40055789      12.54409708      -0.28400254       0.14381242      -0.03148291
As       1.05015656       6.91746235      12.04616308       0.40986667      -0.14928266      -0.20767484
As       1.73942283       3.27344866       0.95850594      -0.41058518      -0.15200875       0.20962608
As      -0.30997489       6.01686609       4.50995254      -0.25414741      -0.58942740      -0.03164116
As       3.10221698       2.36961075       8.49300304       0.28855568      -0.56071538       0.02987447
As       1.00309284       2.77580516       4.85434279      -0.00420080       0.21817597       0.51117473
As       1.78594621       6.41573833       8.14977631      -0.01652860       0.20249108      -0.49224220
As       1.10128940       3.72867631       9.03977258       0.10226580       0.19209728       0.18103569
As       1.69280622       0.08884632       3.96624629      -0.12996564       0.19836690      -0.17657307
8
Lattice="5.48063259 0.11522139 0.13374888 -0.14790469 5.47223401 0.13235165 -0.14374381 -0.15952652 5.47779883" Properties=species:S:1:pos:R:3:REF_forces:R:3 REF_energy=-115.81546865 config_type=traj_early rss_group=traj REF_stress="0.010838501064463915 0.001711491401385452 0.0022682527836321805 0.001711491401385452 0.011371332575620119 0.002200693053578229 0.0022682527836321805 0.002200693053578229 0.011622443673346104" pbc="T T T"
As       3.47500558       1.08600013       3.63831633       0.10843833      -0.18926421       0.52857457
As       0.92903436       3.44866546       3.69910831      -0.24270430       0.58223218       0.13110191
As       3.39414781       3.62580074       1.28511887       0.51539561       0.18599751      -0.22060918
As       0.81735620       0.63436430       3.39241411      -0.20779040      -0.29549935       0.06155643
As       0.60500421       3.33589619       1.02140338      -0.20595000       0.04062561      -0.21712532
As       3.30058356       0.97001769       0.82050442       0.09351738      -0.24407637      -0.21755146
As       0.62344435       0.65966455       0.69788187       0.44367699       0.47832076       0.46951464
As       3.56365226       3.71720761       3.94027608      -0.50458362      -0.55833614      -0.53546160
8
Lattice="3.95352962 -0.1257267 -0.30384893 0.29789419 4.53077155 -0.11196222 -3.8828613 -1.4934541 9.04067782" Properties=species:S:1:pos:R:3:REF_forces:R:3 REF_energy=-116.01958932 config_type=traj_early rss_group=traj REF_stress="0.00786946830724844 0.007438272475883079 -0.0156408683129375 0.007438272475883079 -0.023823005001122534 -0.008659922077175277 -0.0156408683129375 -0.008659922077175277 -0.01484829653057936" pbc="T T T"
As      -2.53903074      -0.31191743       8.60904358      -0.04311586      -0.02596659       0.05483203
As      -0.32650926       2.64843795       7.30877222       0.02276172       0.00538044      -0.03370064
As      -2.36746700       1.23497722       6.38468647       0.03901151      -0.02888184       0.02245211
As      -0.41280367      -0.34940569       5.19170195      -0.62391752       0.01681864      -0.03784420
As      -0.62397309       1.18058098       2.99441296       0.38907868      -0.11969369      -0.10245555
As       3.37597320       2.60170971       0.48325338       0.12552399       0.03733325      -0.02037301
As       1.72882112       2.63895553       3.87898621      -0.66396083       0.17166774       0.11622079
As       1.14757213      -0.35220151       1.78631292       0.75461831      -0.05665795       0.00086847
10
Lattice="4.50454525 1.60283574 1.97665385 -1.20838757 6.74549207 -0.18013401 -1.20739999 -1.57205633 6.562404" Properties=species:S:1:pos:R:3:REF_forces:R:3 REF_energy=-142.70195587 config_type=traj_early rss_group=traj REF_stress="-0.031527195437902625 0.00028554536626028393 0.00035137779611270185 0.00028554536626028393 -0.040151803986428515 0.0007402582116120216 0.00035137779611270185 0.0007402582116120216 -0.03983920906181282" pbc="T T T"